<?xml version="1.0"?>
<VTKFile type="UnstructuredGrid"  version="0.1"  >
<UnstructuredGrid>
<Piece  NumberOfPoints="252" NumberOfCells="656">
<Points>
<DataArray  type="Float64"  NumberOfComponents="3"  format="ascii">0.7 0.5 0  0.5 0.7 0  0.3 0.5 0  0.5 0.3 0  0.8 0.5 0  0.5 0.8 0  0.2 0.5 0  0.5 0.2 0  0.6975376680971505 0.5312868931461723 0  0.6902113031955154 0.5618033990704694 0  0.6782013047006307 0.5907981002168711 0  0.6618033986814891 0.6175570507248249 0  0.6414213559298337 0.6414213565447852 0  0.6175570502834837 0.6618033990021422 0  0.5907980998538905 0.6782013048855785 0  0.5618033988458845 0.6902113032684875 0  0.5312868929590795 0.6975376681267831 0  0.4687131068724776 0.6975376681001043 0  0.4381966009279709 0.6902113031950086 0  0.4092018997680002 0.6782013046929223 0  0.3824429492724846 0.6618033986795344 0  0.3585786434498653 0.6414213559244843 0  0.3381966009645136 0.6175570502375896 0  0.3217986950914202 0.5907980998087481 0  0.3097886967248656 0.5618033988254274 0  0.302462331872008 0.5312868929514465 0  0.3024623318985384 0.4687131068810467 0  0.3097886968008418 0.4381966009407421 0  0.3217986952808202 0.4092018998195335 0  0.3381966013134792 0.3824429492821005 0  0.3585786440906465 0.3585786434347344 0  0.3824429498451968 0.3381966009043658 0  0.4092019002863712 0.3217986950429545 0  0.4381966012773962 0.3097886966914561 0  0.4687131070615941 0.3024623318699425 0  0.5312868931095976 0.3024623318970566 0  0.5618033990502826 0.3097886967979255 0  0.5907981001674644 0.3217986952741952 0  0.6175570507495178 0.3381966013364512 0  0.6414213565743064 0.3585786440996874 0  0.6618033991170362 0.3824429498746542 0  0.6782013049564307 0.4092019002851646 0  0.6902113033056591 0.4381966012685179 0  0.6975376681286711 0.4687131070528412 0  0.7983565686145431 0.5313585389416575 0  0.7934442802008638 0.5623735073360234 0  0.7853169548324416 0.5927050984851563 0  0.7740636371511458 0.6220209932408565 0  0.7598076209531978 0.6500000003154651 0  0.7427050980178367 0.6763355760932895 0  0.7229434472128566 0.7007391823856226 0  0.7007391814368437 0.7229434480671411 0  0.6763355752150711 0.7427050986558997 0  0.6499999995481225 0.7598076213962233 0  0.6220209925840311 0.7740636374435832 0  0.5927050980266336 0.7853169549814246 0  0.5623735070578577 0.7934442802599897 0  0.5313585388955794 0.7983565686193861 0  0.4686414609314141 0.7983565686012024 0  0.4376264926218299 0.7934442801919053 0  0.4072949014785565 0.7853169548206511 0  0.3779790067950114 0.7740636371671152 0  0.3499999996960776 0.759807620959862 0  0.3236644239620363 0.7427050980580333 0  0.2992608176727108 0.7229434472653803 0  0.2770565519740305 0.7007391814825692 0  0.2572949013809086 0.6763355752657334 0  0.2401923786123909 0.6499999995630427 0  0.2259363625587592 0.6220209925892923 0  0.2146830450246924 0.5927050980454598 0  0.206555719739088 0.5623735070535189 0  0.201643431379716 0.5313585388870361 0  0.2016434313989256 0.4686414609301967 0  0.2065557198191881 0.4376264925696402 0  0.2146830451894762 0.407294901447388 0  0.2259363628681921 0.3779790067157103 0  0.2401923790835907 0.3499999996208155 0  0.2572949020131065 0.3236644238641209 0  0.277056552817858 0.2992608175802655 0  0.2992608185885283 0.2770565519100141 0  0.3236644247069768 0.2572949014007358 0  0.3500000003977847 0.2401923786350073 0  0.3779790074287703 0.2259363625507173 0  0.4072949019549275 0.2146830450245666 0  0.4376264929592185 0.2065557197363807 0  0.4686414611145826 0.2016434313795459 0  0.5313585389923559 0.2016434313907856 0  0.5623735073013066 0.206555719791757 0  0.5927050985877975 0.2146830452009086 0  0.6220209932412856 0.2259363628490454 0  0.6500000003411415 0.2401923790616265 0  0.676335576108728 0.25729490199338 0  0.7007391824109117 0.2770565528099139 0  0.722943448082868 0.2992608185806231 0  0.7427050986340158 0.3236644247548082 0  0.7598076213471764 0.350000000366926 0  0.7740636374366836 0.3779790074004722 0  0.7853169549663963 0.4072949019271143 0  0.7934442802624647 0.4376264929537866 0  0.7983565686200738 0.4686414611109638 0  0.6161053579650455 0.6939312810849376 0  0.3060687188787938 0.6161053579291307 0  0.6939312811852592 0.3838946421750898 0  0.3528594303623437 0.3277205271503172 0  0.7215552357994099 0.4435707530122988 0  0.4477161168410718 0.2819235965407114 0  0.2784447642046395 0.5564292470287654 0  0.5564292470415657 0.7215552358003068 0  0.6753500802179425 0.6470553270723675 0  0.352944672917561 0.6753500802096353 0  0.7282981474287004 0.5159020672864103 0  0.6470553271686263 0.32464991983985 0  0.5159020672629873 0.2717018525613437 0  0.4840979327153721 0.7282981474423162 0  0.2717018525551971 0.4840979327294179 0  0.7079211547949179 0.5886486851860788 0  0.4113513148024262 0.7079211547919955 0  0.2915007877927398 0.4156550501158927 0  0.5886486851592361 0.2920788451769965 0  0.3735438950985644 0.2518159191849072 0  0.2888741365885356 0.3250436840503821 0  0.7093982019220957 0.3298321041372657 0  0.754541175282209 0.4019216877284638 0  0.7725315811988935 0.4856447496849686 0  0.4856447496833046 0.2274684188014126 0  0.2454588247235643 0.5980783122832872 0  0.5143552503141361 0.7725315812137243 0  0.598078312287099 0.7545411752740523 0  0.2906017981299641 0.6701678959263065 0  0.2274684187932833 0.5143552503164575 0  0.6701678959097628 0.7093982018744851 0  0.3514235969616569 0.7289204849524903 0  0.7289204849311566 0.6485764030472368 0  0.4306154759451797 0.7607498947693269 0  0.5693845240299726 0.2392501052297923 0  0.7607498947661187 0.569384524028971 0  0.648576403126803 0.2710795150616842 0  0.2338686820715901 0.4301825951156806 0  0.2554905558331397 0.3744598046004452 0  0.3257298040112111 0.2873558670754287 0  0.4310745431481458 0.2338431369057933 0  0.3308777960286375 0.3511623324916247 0  0.3105862690976402 0.3703391136000251 0  0.3840500555983156 0.6927788304636011 0  0.5204961701653467 0.7243212003469188 0  0.4434253876645949 0.724750952088178 0  0.2756787996559336 0.5204961701666403 0  0.6927788304678427 0.6159499443900791 0  0.72475095208041 0.5565746123294097 0  0.6159499444227161 0.3072211695441818 0  0.2816443457417309 0.4475236715482123 0  0.5565746123058664 0.2752490479018192 0  0.6485736168246444 0.6778751179328146 0  0.5881267659216998 0.7070007119816396 0  0.383439155145979 0.3098397274471749 0  0.7243212003370896 0.4795038298518851 0  0.3221248820477302 0.6485736168059416 0  0.2929992880010928 0.5881267658911421 0  0.4801947238183147 0.2762586050494811 0  0.6778751180203841 0.3514263832730129 0  0.7070007120347775 0.4118732341906169 0  0.4150738229735891 0.294800585272757 0  0.4604146476424844 0.2500679210454444 0  0.615649346333745 0.7259936740797905 0  0.2740063258913553 0.6156493463144433 0  0.7259936741442337 0.3843506537463725 0  0.7505706368607943 0.4596165261520012 0  0.2494293631247606 0.5403834738734258 0  0.5403834738765562 0.7505706368863853 0  0.726312591421459 0.6149876656233667 0  0.6149876656466584 0.2736874085686564 0  0.3850123343677372 0.7263125914224643 0  0.6782639460018531 0.6780867288441814 0  0.3219132711574685 0.6782639460107517 0  0.6780867289360629 0.3217360540441494 0  0.5392942713142732 0.2511046852511034 0  0.2533908777185898 0.4543908284799212 0  0.4607057286510624 0.7488953147475738 0  0.7488953147406555 0.5392942713267905 0  0.7553575379060444 0.5110037422772324 0  0.3410023904538071 0.7001207500969833 0  0.7001207500702723 0.6589976095157672 0  0.5110037422499486 0.2446424621058869 0  0.6589976097624032 0.299879249900794 0  0.488996257722195 0.7553575379173109 0  0.2446424620986379 0.4889962577402552 0  0.3228337865586728 0.3202129294214884 0  0.7083870343936189 0.3594127721507178 0  0.7453869091073467 0.4308918411582254 0  0.2916129656498154 0.6405872279049668 0  0.254613090890897 0.5691081588554994 0  0.5691081588571588 0.7453869091247205 0  0.7362071934732799 0.5859799374665966 0  0.4140200625235996 0.7362071934737041 0  0.640587227905192 0.708387034330514 0  0.5859799374687527 0.2637928065237616 0  0.3500000003563896 0.2690202551299923 0  0.4013012493929041 0.2428809632411783 0  0.2434467855651078 0.4011273833726262 0  0.2713528994471329 0.3487420340222481 0  0.3543931453533049 0.2995893569800457 0  0.4234499463737431 0.264403159546605 0  0.2627777237217196 0.4241262112974607 0  0.3866154107002041 0.2774784641461281 0  0.3027510197129611 0.3017859700075157 0  0.6940405360053021 0.302259723305108 0  0.7740294098162381 0.5407532722531007 0  0.30595946407025 0.6977402767573909 0  0.6977402767254529 0.6940405359705747 0  0.5407532722583974 0.2259705901733635 0  0.4592467276839874 0.7740294098173467 0  0.2266937248419926 0.4608611104482933 0  0.6276377146491519 0.7498286009748383 0  0.2501713990174607 0.6276377146598154 0  0.749828600981285 0.3723622853328165 0  0.7770515297653566 0.4558175876471351 0  0.2229484702308443 0.5441824123571291 0  0.544182412358709 0.7770515297736352 0  0.7500811417520906 0.6271778524784163 0  0.3728221475317087 0.7500811417596975 0  0.6271778525115836 0.2499188582565111 0  0.4566803789095471 0.2239157255737154 0  0.2864159162595183 0.3719945420524149 0  0.6495265062176321 0.7336908806285435 0  0.26630911936199 0.6495265062514132 0  0.7336908806455857 0.3504734937447919 0  0.7684717241389887 0.4308702306628834 0  0.2315282758589934 0.5691297693381924 0  0.5691297693360253 0.7684717241467934 0  0.7583186504578792 0.6011911789349206 0  0.6011911789668147 0.2416813495663236 0  0.3988088210636921 0.7583186504558775 0  0.2739526276724229 0.3970380156624472 0  0.7178518846166694 0.6764129784520423 0  0.3235870215856663 0.7178518846791476 0  0.5146709721087687 0.2200611759589816 0  0.7799388240439907 0.5146709720850746 0  0.4853290278541016 0.7799388240652321 0  0.2200611759450243 0.4853290278540664 0  0.6764129785408143 0.2821481153131344 0  0.304166912876326 0.3476834584034958 0  0.7486040717180893 0.488422404129933 0  0.4889975764335023 0.2520810395958936 0  0.5115775958579419 0.7486040717238728 0  0.2513959282757877 0.5115775958799004 0  0.707930058746423 0.6367593355074914 0  0.3632406644848606 0.707930058746326 0  0.6367593356825997 0.2920699413810239 0  0.5878934292094025 0.732184542938166 0  0.2678154570657857 0.5878934292028729 0  0.7321845429457181 0.4121065708215793 0  0.303909414910165 0.392950217783918 0  </DataArray>
</Points>
<Cells>
<DataArray  type="UInt32"  Name="connectivity"  format="ascii">0 8  0 43  0 110  0 155  1 16  1 17  1 113  1 144  2 25  2 26  2 114  2 146  3 34  3 35  3 112  3 158  4 44  4 99  4 123  4 236  5 57  5 58  5 126  5 237  6 71  6 72  6 129  6 238  7 85  7 86  7 124  7 235  8 9  8 110  8 148  9 10  9 115  9 148  10 11  10 115  10 147  11 12  11 108  11 147  12 13  12 108  12 152  13 14  13 100  13 152  14 15  14 100  14 153  15 16  15 107  15 153  16 107  16 144  17 18  17 113  17 145  18 19  18 116  18 145  19 20  19 116  19 143  20 21  20 109  20 143  21 22  21 109  21 156  22 23  22 101  22 156  23 24  23 101  23 157  24 25  24 106  24 157  25 106  25 146  26 27  26 114  26 150  27 28  27 117  27 150  28 29  28 117  28 251  29 30  29 141  29 142  29 251  30 31  30 103  30 141  31 32  31 103  31 154  32 33  32 154  32 161  33 34  33 105  33 161  34 105  34 158  35 36  35 112  35 151  36 37  36 118  36 151  37 38  37 118  37 149  38 39  38 111  38 149  39 40  39 111  39 159  40 41  40 102  40 159  41 42  41 102  41 160  42 43  42 104  42 160  43 104  43 155  44 45  44 206  44 236  45 46  45 135  45 206  46 47  46 135  46 229  47 48  47 218  47 229  48 49  48 132  48 218  49 50  49 132  49 233  50 51  50 208  50 233  51 52  51 130  51 208  52 53  52 130  52 223  53 54  53 212  53 223  54 55  54 127  54 212  55 56  55 127  55 228  56 57  56 217  56 228  57 126  57 217  58 59  58 210  58 237  59 60  59 133  59 210  60 61  60 133  60 231  61 62  61 219  61 231  62 63  62 131  62 219  63 64  63 131  63 234  64 65  64 207  64 234  65 66  65 128  65 207  66 67  66 128  66 224  67 68  67 213  67 224  68 69  68 125  68 213  69 70  69 125  69 227  70 71  70 216  70 227  71 129  71 216  72 73  72 211  72 238  73 74  73 137  73 211  74 75  74 137  74 198  75 76  75 138  75 198  76 77  76 138  76 199  77 78  77 120  77 199  78 79  78 120  78 204  79 80  79 139  79 204  80 81  80 139  80 196  81 82  81 119  81 196  82 83  82 119  82 197  83 84  83 140  83 197  84 85  84 140  84 221  85 124  85 221  86 87  86 209  86 235  87 88  87 134  87 209  88 89  88 134  88 230  89 90  89 220  89 230  90 91  90 136  90 220  91 92  91 136  91 239  92 93  92 205  92 239  93 94  93 121  93 205  94 95  94 121  94 225  95 96  95 214  95 225  96 97  96 122  96 214  97 98  97 122  97 226  98 99  98 215  98 226  99 123  99 215  100 152  100 153  100 163  100 194  101 156  101 157  101 164  101 189  102 159  102 160  102 165  102 187  103 141  103 154  103 186  103 200  104 155  104 160  104 166  104 188  104 250  105 158  105 161  105 162  105 201  106 146  106 157  106 167  106 190  106 249  107 144  107 153  107 168  107 191  107 248  108 147  108 152  108 172  108 181  108 245  109 143  109 156  109 173  109 180  109 246  110 148  110 155  110 178  110 179  110 241  111 149  111 159  111 174  111 183  111 247  112 151  112 158  112 175  112 182  112 242  113 144  113 145  113 177  113 184  113 243  114 146  114 150  114 176  114 185  114 244  115 147  115 148  115 169  115 192  116 143  116 145  116 171  116 193  117 150  117 202  117 232  117 251  118 149  118 151  118 170  118 195  119 196  119 197  119 203  120 186  120 199  120 204  120 240  121 159  121 174  121 187  121 205  121 225  122 165  122 188  122 214  122 226  122 250  123 166  123 179  123 215  123 236  123 241  124 162  124 182  124 221  124 235  124 242  125 164  125 190  125 213  125 227  125 249  126 168  126 184  126 217  126 237  126 243  127 163  127 191  127 212  127 228  127 248  128 156  128 173  128 189  128 207  128 224  129 167  129 185  129 216  129 238  129 244  130 152  130 172  130 194  130 208  130 223  131 171  131 180  131 219  131 234  131 246  132 169  132 181  132 218  132 233  132 245  133 145  133 177  133 193  133 210  133 231  134 151  134 175  134 195  134 209  134 230  135 148  135 178  135 192  135 206  135 229  136 170  136 183  136 220  136 239  136 247  137 176  137 198  137 202  137 211  138 198  138 199  138 222  138 232  139 186  139 196  139 200  139 204  140 162  140 197  140 201  140 221  141 142  141 186  141 240  142 222  142 240  142 251  143 171  143 246  144 168  144 243  145 177  145 193  146 167  146 244  147 169  147 245  148 178  148 192  149 170  149 247  150 176  150 202  151 175  151 195  152 172  152 194  153 163  153 248  154 161  154 200  154 203  155 166  155 241  156 173  156 189  157 164  157 249  158 162  158 242  159 174  159 187  160 165  160 250  161 201  161 203  162 201  162 221  162 242  163 194  163 212  163 223  163 248  164 189  164 213  164 224  164 249  165 187  165 214  165 225  165 250  166 188  166 215  166 226  166 241  167 190  167 216  167 227  167 244  168 191  168 217  168 228  168 243  169 192  169 218  169 229  169 245  170 195  170 220  170 230  170 247  171 193  171 219  171 231  171 246  172 181  172 208  173 180  173 207  174 183  174 205  175 182  175 209  176 185  176 202  176 211  177 184  177 210  178 179  178 206  179 206  179 236  179 241  180 207  180 234  180 246  181 208  181 233  181 245  182 209  182 235  182 242  183 205  183 239  183 247  184 210  184 237  184 243  185 211  185 238  185 244  186 200  186 204  186 240  187 225  188 226  188 250  189 224  190 227  190 249  191 228  191 248  192 229  193 231  194 223  195 230  196 200  196 203  197 201  197 203  198 202  198 232  199 222  199 240  200 203  201 203  202 232  205 239  206 236  207 234  208 233  209 235  210 237  211 238  212 223  213 224  214 225  215 226  216 227  217 228  218 229  219 231  220 230  222 232  222 240  222 251  232 251  </DataArray>
<DataArray  type="UInt32"  Name="offsets"  format="ascii">2 4 6 8 10 12 14 16 18 20 22 24 26 28 30 32 34 36 38 40 42 44 46 48 50 52 54 56 58 60 62 64 66 68 70 72 74 76 78 80 82 84 86 88 90 92 94 96 98 100 102 104 106 108 110 112 114 116 118 120 122 124 126 128 130 132 134 136 138 140 142 144 146 148 150 152 154 156 158 160 162 164 166 168 170 172 174 176 178 180 182 184 186 188 190 192 194 196 198 200 202 204 206 208 210 212 214 216 218 220 222 224 226 228 230 232 234 236 238 240 242 244 246 248 250 252 254 256 258 260 262 264 266 268 270 272 274 276 278 280 282 284 286 288 290 292 294 296 298 300 302 304 306 308 310 312 314 316 318 320 322 324 326 328 330 332 334 336 338 340 342 344 346 348 350 352 354 356 358 360 362 364 366 368 370 372 374 376 378 380 382 384 386 388 390 392 394 396 398 400 402 404 406 408 410 412 414 416 418 420 422 424 426 428 430 432 434 436 438 440 442 444 446 448 450 452 454 456 458 460 462 464 466 468 470 472 474 476 478 480 482 484 486 488 490 492 494 496 498 500 502 504 506 508 510 512 514 516 518 520 522 524 526 528 530 532 534 536 538 540 542 544 546 548 550 552 554 556 558 560 562 564 566 568 570 572 574 576 578 580 582 584 586 588 590 592 594 596 598 600 602 604 606 608 610 612 614 616 618 620 622 624 626 628 630 632 634 636 638 640 642 644 646 648 650 652 654 656 658 660 662 664 666 668 670 672 674 676 678 680 682 684 686 688 690 692 694 696 698 700 702 704 706 708 710 712 714 716 718 720 722 724 726 728 730 732 734 736 738 740 742 744 746 748 750 752 754 756 758 760 762 764 766 768 770 772 774 776 778 780 782 784 786 788 790 792 794 796 798 800 802 804 806 808 810 812 814 816 818 820 822 824 826 828 830 832 834 836 838 840 842 844 846 848 850 852 854 856 858 860 862 864 866 868 870 872 874 876 878 880 882 884 886 888 890 892 894 896 898 900 902 904 906 908 910 912 914 916 918 920 922 924 926 928 930 932 934 936 938 940 942 944 946 948 950 952 954 956 958 960 962 964 966 968 970 972 974 976 978 980 982 984 986 988 990 992 994 996 998 1000 1002 1004 1006 1008 1010 1012 1014 1016 1018 1020 1022 1024 1026 1028 1030 1032 1034 1036 1038 1040 1042 1044 1046 1048 1050 1052 1054 1056 1058 1060 1062 1064 1066 1068 1070 1072 1074 1076 1078 1080 1082 1084 1086 1088 1090 1092 1094 1096 1098 1100 1102 1104 1106 1108 1110 1112 1114 1116 1118 1120 1122 1124 1126 1128 1130 1132 1134 1136 1138 1140 1142 1144 1146 1148 1150 1152 1154 1156 1158 1160 1162 1164 1166 1168 1170 1172 1174 1176 1178 1180 1182 1184 1186 1188 1190 1192 1194 1196 1198 1200 1202 1204 1206 1208 1210 1212 1214 1216 1218 1220 1222 1224 1226 1228 1230 1232 1234 1236 1238 1240 1242 1244 1246 1248 1250 1252 1254 1256 1258 1260 1262 1264 1266 1268 1270 1272 1274 1276 1278 1280 1282 1284 1286 1288 1290 1292 1294 1296 1298 1300 1302 1304 1306 1308 1310 1312 </DataArray>
<DataArray  type="UInt8"  Name="types"  format="ascii">3 3 3 3 3 3 3 3 3 3 3 3 3 3 3 3 3 3 3 3 3 3 3 3 3 3 3 3 3 3 3 3 3 3 3 3 3 3 3 3 3 3 3 3 3 3 3 3 3 3 3 3 3 3 3 3 3 3 3 3 3 3 3 3 3 3 3 3 3 3 3 3 3 3 3 3 3 3 3 3 3 3 3 3 3 3 3 3 3 3 3 3 3 3 3 3 3 3 3 3 3 3 3 3 3 3 3 3 3 3 3 3 3 3 3 3 3 3 3 3 3 3 3 3 3 3 3 3 3 3 3 3 3 3 3 3 3 3 3 3 3 3 3 3 3 3 3 3 3 3 3 3 3 3 3 3 3 3 3 3 3 3 3 3 3 3 3 3 3 3 3 3 3 3 3 3 3 3 3 3 3 3 3 3 3 3 3 3 3 3 3 3 3 3 3 3 3 3 3 3 3 3 3 3 3 3 3 3 3 3 3 3 3 3 3 3 3 3 3 3 3 3 3 3 3 3 3 3 3 3 3 3 3 3 3 3 3 3 3 3 3 3 3 3 3 3 3 3 3 3 3 3 3 3 3 3 3 3 3 3 3 3 3 3 3 3 3 3 3 3 3 3 3 3 3 3 3 3 3 3 3 3 3 3 3 3 3 3 3 3 3 3 3 3 3 3 3 3 3 3 3 3 3 3 3 3 3 3 3 3 3 3 3 3 3 3 3 3 3 3 3 3 3 3 3 3 3 3 3 3 3 3 3 3 3 3 3 3 3 3 3 3 3 3 3 3 3 3 3 3 3 3 3 3 3 3 3 3 3 3 3 3 3 3 3 3 3 3 3 3 3 3 3 3 3 3 3 3 3 3 3 3 3 3 3 3 3 3 3 3 3 3 3 3 3 3 3 3 3 3 3 3 3 3 3 3 3 3 3 3 3 3 3 3 3 3 3 3 3 3 3 3 3 3 3 3 3 3 3 3 3 3 3 3 3 3 3 3 3 3 3 3 3 3 3 3 3 3 3 3 3 3 3 3 3 3 3 3 3 3 3 3 3 3 3 3 3 3 3 3 3 3 3 3 3 3 3 3 3 3 3 3 3 3 3 3 3 3 3 3 3 3 3 3 3 3 3 3 3 3 3 3 3 3 3 3 3 3 3 3 3 3 3 3 3 3 3 3 3 3 3 3 3 3 3 3 3 3 3 3 3 3 3 3 3 3 3 3 3 3 3 3 3 3 3 3 3 3 3 3 3 3 3 3 3 3 3 3 3 3 3 3 3 3 3 3 3 3 3 3 3 3 3 3 3 3 3 3 3 3 3 3 3 3 3 3 3 3 3 3 3 3 3 3 3 3 3 3 3 3 3 3 3 3 3 3 3 3 3 3 3 3 3 3 3 3 3 3 3 3 3 3 3 3 3 3 3 3 3 3 3 3 3 3 3 3 3 3 3 3 3 3 3 3 3 3 3 3 3 3 3 3 3 3 3 3 </DataArray>
</Cells>
<CellData  Scalars="f">
<DataArray  type="Float64"  Name="f"  format="ascii">1 1 0 0 1 1 0 0 1 1 0 0 1 1 0 0 2 2 0 0 2 2 0 0 2 2 0 0 2 2 0 0 1 0 0 1 0 0 1 0 0 1 0 0 1 0 0 1 0 0 1 0 0 1 0 0 0 0 1 0 0 1 0 0 1 0 0 1 0 0 1 0 0 1 0 0 1 0 0 1 0 0 0 0 1 0 0 1 0 0 1 0 0 1 0 0 0 1 0 0 1 0 0 1 0 0 1 0 0 0 0 1 0 0 1 0 0 1 0 0 1 0 0 1 0 0 1 0 0 1 0 0 1 0 0 0 0 2 0 0 2 0 0 2 0 0 2 0 0 2 0 0 2 0 0 2 0 0 2 0 0 2 0 0 2 0 0 2 0 0 2 0 0 2 0 0 0 0 2 0 0 2 0 0 2 0 0 2 0 0 2 0 0 2 0 0 2 0 0 2 0 0 2 0 0 2 0 0 2 0 0 2 0 0 2 0 0 0 0 2 0 0 2 0 0 2 0 0 2 0 0 2 0 0 2 0 0 2 0 0 2 0 0 2 0 0 2 0 0 2 0 0 2 0 0 2 0 0 0 0 2 0 0 2 0 0 2 0 0 2 0 0 2 0 0 2 0 0 2 0 0 2 0 0 2 0 0 2 0 0 2 0 0 2 0 0 2 0 0 0 0 0 0 0 0 0 0 0 0 0 0 0 0 0 0 0 0 0 0 0 0 0 0 0 0 0 0 0 0 0 0 0 0 0 0 0 0 0 0 0 0 0 0 0 0 0 0 0 0 0 0 0 0 0 0 0 0 0 0 0 0 0 0 0 0 0 0 0 0 0 0 0 0 0 0 0 0 0 0 0 0 0 0 0 0 0 0 0 0 0 0 0 0 0 0 0 0 0 0 0 0 0 0 0 0 0 0 0 0 0 0 0 0 0 0 0 0 0 0 0 0 0 0 0 0 0 0 0 0 0 0 0 0 0 0 0 0 0 0 0 0 0 0 0 0 0 0 0 0 0 0 0 0 0 0 0 0 0 0 0 0 0 0 0 0 0 0 0 0 0 0 0 0 0 0 0 0 0 0 0 0 0 0 0 0 0 0 0 0 0 0 0 0 0 0 0 0 0 0 0 0 0 0 0 0 0 0 0 0 0 0 0 0 0 0 0 0 0 0 0 0 0 0 0 0 0 0 0 0 0 0 0 0 0 0 0 0 0 0 0 0 0 0 0 0 0 0 0 0 0 0 0 0 0 0 0 0 0 0 0 0 0 0 0 0 0 0 0 0 0 0 0 0 0 0 0 0 0 0 0 0 0 0 0 0 0 0 0 0 0 0 0 0 0 0 0 0 0 0 0 0 0 0 0 0 0 0 0 0 0 0 0 0 0 0 0 0 0 0 0 0 0 0 0 0 0 0 0 0 0 0 0 0 0 0 0 0 0 0 0 0 0 0 0 0 0 0 0 0 0 0 0 0 0 0 0 </DataArray>
</CellData>
</Piece>
</UnstructuredGrid>
</VTKFile>