<?xml version="1.0"?>
<VTKFile type="UnstructuredGrid"  version="0.1"  >
<UnstructuredGrid>
<Piece  NumberOfPoints="574" NumberOfCells="988">
<Points>
<DataArray  type="Float64"  NumberOfComponents="3"  format="ascii">0.7 0.5 0  0.5 0.7 0  0.3 0.5 0  0.5 0.3 0  0.8 0.5 0  0.5 0.8 0  0.2 0.5 0  0.5 0.2 0  0.6990369453272047 0.5196034281393659 0  0.6961570560598427 0.5390180645078109 0  0.6913880671002357 0.5580569356032133 0  0.6847759064054623 0.5765366867067019 0  0.6763842527457312 0.5942793475970745 0  0.6662939222982509 0.6111140468467569 0  0.6546020904324357 0.6268786571253061 0  0.6414213559295446 0.6414213565450743 0  0.6268786565811078 0.6546020908790476 0  0.6111140463757559 0.6662939226129636 0  0.5942793471957324 0.6763842529602531 0  0.5765366863711257 0.6847759065444625 0  0.5580569353683167 0.6913880671714908 0  0.5390180643334496 0.6961570560945254 0  0.5196034280612535 0.6990369453348981 0  0.4803965718514564 0.6990369453263008 0  0.4609819354562227 0.6961570560526886 0  0.4419430643649834 0.6913880670905883 0  0.4234633132218076 0.6847759063758498 0  0.4057206523380973 0.6763842527110798 0  0.3888859530892391 0.6662939222554848 0  0.3731213428067673 0.6546020903766897 0  0.3585786434051366 0.6414213558797555 0  0.3453979090628603 0.6268786565103224 0  0.3337060773359964 0.6111140462993693 0  0.3236157470079075 0.5942793471361649 0  0.3152240934284735 0.5765366863057874 0  0.3086119328213701 0.5580569353447824 0  0.3038429439020282 0.5390180643161232 0  0.300963054663975 0.5196034280498129 0  0.3009630546717897 0.4803965718708425 0  0.3038429439455732 0.4609819354649611 0  0.308611932904957 0.4419430643796686 0  0.3152240935790345 0.4234633133307262 0  0.323615747256714 0.4057206523983506 0  0.3337060777038949 0.3888859531500316 0  0.3453979095613169 0.3731213428823065 0  0.3585786440828598 0.3585786434425212 0  0.3731213434850357 0.3453979090666698 0  0.388885953668101 0.3337060773577321 0  0.4057206528518852 0.3236157470142947 0  0.4234633137076749 0.3152240934228972 0  0.4419430646865727 0.3086119328118586 0  0.4609819356808532 0.3038429439026296 0  0.4803965719644639 0.3009630546625688 0  0.5196034281284643 0.3009630546717215 0  0.5390180644617257 0.3038429439309903 0  0.5580569355983285 0.3086119328982824 0  0.5765366866567425 0.3152240935738438 0  0.5942793475742112 0.323615747242048 0  0.6111140468676413 0.3337060777157036 0  0.6268786571174209 0.3453979095610931 0  0.6414213565566497 0.3585786440820306 0  0.6546020909387976 0.3731213434916977 0  0.6662939226558396 0.3888859536884125 0  0.6763842529814477 0.40572065284392 0  0.6847759065617556 0.4234633136706235 0  0.6913880671833389 0.4419430646707408 0  0.6961570560945469 0.4609819356666586 0  0.6990369453364941 0.4803965719549493 0  0.7993576769712296 0.5196209387744051 0  0.7974334584123208 0.539157857664666 0  0.7942355841027693 0.5585270966963356 0  0.789777747849235 0.5776457136706539 0  0.7840790387865693 0.596431839773484 0  0.7771638596345807 0.6148050299963483 0  0.7690618222976195 0.6326866073945832 0  0.7598076209338125 0.6500000003490413 0  0.7494408834193182 0.6666710703121272 0  0.7380060017253541 0.6826284291744052 0  0.7255519418115003 0.6978037450228424 0  0.7121320338265101 0.7121320348854184 0  0.6978037440227705 0.7255519426885398 0  0.6826284281959526 0.7380060024761472 0  0.6666710694322892 0.7494408840072073 0  0.649999999514269 0.7598076214157685 0  0.6326866066422662 0.7690618226686212 0  0.6148050293573359 0.7771638598992684 0  0.5964318392825981 0.7840790389532026 0  0.5776457132477845 0.7897777479625425 0  0.5585270964130792 0.7942355841591124 0  0.5391578575133742 0.7974334584322388 0  0.5196209386941455 0.7993576769764901 0  0.4803790611679471 0.7993576769674512 0  0.4608421422146421 0.7974334583964314 0  0.4414729032507119 0.7942355840922364 0  0.4223542862780755 0.7897777478354971 0  0.403568160179221 0.7840790387705148 0  0.3851949700160628 0.7771638596397217 0  0.3673133926490976 0.7690618223191605 0  0.3499999996764573 0.7598076209485343 0  0.3333289297369425 0.7494408834521057 0  0.3173715708800163 0.7380060017671133 0  0.30219625504214 0.7255519418684881 0  0.287867965179993 0.7121320338919216 0  0.2744480573661788 0.697803744085165 0  0.2619939975642638 0.6826284282486174 0  0.250559116032957 0.6666710694923993 0  0.2401923786161527 0.6499999995695583 0  0.2309381773590587 0.6326866066983954 0  0.2228361401173513 0.6148050293974593 0  0.2159209610600049 0.5964318393215061 0  0.210222252045097 0.577645713276296 0  0.2057644158447588 0.5585270964325413 0  0.2025665415684286 0.539157857518443 0  0.2006423230239016 0.5196209387001225 0  0.2006423230328473 0.4803790611633931 0  0.202566541604043 0.4608421422110387 0  0.2057644159141985 0.4414729032183616 0  0.2102222521717771 0.4223542862509278 0  0.2159209612401458 0.403568160147816 0  0.2228361403938222 0.3851949699350811 0  0.2309381777332394 0.3673133925428413 0  0.2401923790939381 0.3499999996028933 0  0.2505591166028353 0.3333289296547177 0  0.2619939982888017 0.3173715708071466 0  0.274448058212768 0.3021962549494852 0  0.2878679661846463 0.2878679651034253 0  0.3021962559797671 0.274448057309235 0  0.3173715717394519 0.2619939975734187 0  0.3333289305144491 0.2505591160283811 0  0.3500000003921721 0.2401923786382478 0  0.3673133933037976 0.2309381773579773 0  0.3851949706019272 0.2228361401176054 0  0.4035681606795829 0.2159209610596353 0  0.4223542866885432 0.2102222520545184 0  0.4414729035590047 0.2057644158464405 0  0.4608421424499739 0.2025665415725866 0  0.4803790612940077 0.2006423230242864 0  0.5196209387902581 0.2006423230298094 0  0.5391578577290985 0.2025665415961619 0  0.5585270966690306 0.2057644158917994 0  0.5776457137211921 0.2102222521643067 0  0.5964318398728182 0.2159209612471502 0  0.6148050300384804 0.222836140382871 0  0.6326866074092928 0.2309381777096345 0  0.6500000003552832 0.2401923790697912 0  0.6666710702975391 0.2505591165709342 0  0.6826284291567808 0.2619939982611222 0  0.6978037450145222 0.2744480581812032 0  0.7121320348661444 0.2878679661542159 0  0.7255519426575165 0.3021962559418544 0  0.7380060024318691 0.3173715717463431 0  0.7494408839835298 0.333328930532275 0  0.7598076213494396 0.350000000370846 0  0.7690618226324133 0.3673133932843118 0  0.7771638598816748 0.3851949706001894 0  0.7840790389314616 0.403568160653355 0  0.7897777479396413 0.4223542866667467 0  0.7942355841529616 0.4414729035559986 0  0.7974334584273077 0.4608421424491715 0  0.7993576769755822 0.4803790612920041 0  0.6879957459542294 0.3873572358061597 0  0.3135839022843526 0.6107810614859024 0  0.6452023734068264 0.6608453491449294 0  0.3712309009164156 0.3259580883280435 0  0.6117531742463432 0.6854001292733453 0  0.3385100491843778 0.644714167463083 0  0.2898422089915706 0.5523635260789871 0  0.7021845263023111 0.4268149328512846 0  0.5312343474731673 0.7144388893835149 0  0.4082055906494259 0.3031139107848376 0  0.6606586320136585 0.3547517958400984 0  0.4476364740123083 0.2898422073914166 0  0.5711956261392866 0.7032941748154172 0  0.2807064330428891 0.510277867647509 0  0.7142117022186186 0.4687697735526783 0  0.4897221341130226 0.2807064338898196 0  0.5315908285654892 0.285586725262584 0  0.7150721105626714 0.5094856345901156 0  0.407154859549045 0.6956732397874756 0  0.6956732398253365 0.5928451403778706 0  0.3143693953559414 0.3884226015951615 0  0.5924695751635075 0.3057087451389018 0  0.3377530851184596 0.3525527568283988 0  0.4901889148679112 0.7153767497195007 0  0.3691657421905621 0.6759180061825947 0  0.2976854512450376 0.4260665061399376 0  0.7102607075997636 0.5526675656428274 0  0.6759180062296226 0.630834257745413 0  0.4473324343190568 0.7102607075960287 0  0.2857882986687841 0.468769775134855 0  0.6291217753874143 0.3258994406813286 0  0.5812335011885321 0.226976633045701 0  0.2417637505317544 0.6173342970584123 0  0.7332214086462909 0.3364336005954776 0  0.2701800104504724 0.6661416085262782 0  0.2205418830059197 0.5466721844314627 0  0.5641349490595116 0.7756855072272579 0  0.3972179000905272 0.2350535060124623 0  0.3512292465493143 0.261063020725638 0  0.7566343645119933 0.3832101931365371 0  0.3058552651891417 0.2929367472340229 0  0.6654721892863926 0.7300623585436586 0  0.6169369740239932 0.7582238492002599 0  0.4529753759575726 0.2208036822481914 0  0.3060957615603128 0.7065788993662649 0  0.7760960096444075 0.4350076397953959 0  0.7075266682203794 0.6929174935044159 0  0.7831989057204952 0.4891989312932778 0  0.5095252029753982 0.7855039447059576 0  0.512508068836671 0.2164933543067852 0  0.692261721126141 0.2925752613953702 0  0.2164933595047446 0.4874919273054106 0  0.4017513527112596 0.7652108406200465 0  0.7797800732389956 0.5447628892631772 0  0.7652108406186743 0.598248647209225 0  0.455237110640494 0.7797800732543813 0  0.2386650141728888 0.3818233583731055 0  0.3471256651685474 0.7403656179138154 0  0.2693431922518402 0.3358181083974882 0  0.6517729095333734 0.2599819385822346 0  0.2244390973236929 0.4343026452357736 0  0.74036561791764 0.6528743348338463 0  0.2289305777506259 0.5845175809816029 0  0.5462819293038224 0.2214766875845035 0  0.6159063931428583 0.2422651266527468 0  0.4262873420900442 0.7037788047830823 0  0.4311122626816209 0.7232194719410109 0  0.4511324730478057 0.7293140981386452 0  0.4360001491773481 0.7427974397303195 0  0.4161340139369083 0.7359307761354418 0  0.4550159166225488 0.7482566993804621 0  0.4693708955084548 0.7359819114130769 0  0.4736430502428476 0.7543896553341674 0  0.4877738143537744 0.7428558442427781 0  0.4910052602956897 0.7616368625936722 0  0.5066571348372709 0.7482695687055376 0  0.4748911641910727 0.7727206264558671 0  0.4107769267398674 0.7153993729158551 0  0.3912134099334685 0.7070280930250049 0  0.3938575303272119 0.7266390756148798 0  0.3754651260027492 0.7177615722388355 0  0.3797091220412452 0.7371892678991588 0  0.3730551126136875 0.6980692977480533 0  0.3575437861200018 0.7091935482974466 0  0.3556964104513136 0.6903293675360364 0  0.3397600613077227 
[...]
<PointData  Vectors="U"> 
<DataArray  type="Float64"  Name="U"  NumberOfComponents="3" format="ascii">1.4190129261907622e-01 0.0000000000000000e+00 0.0000000000000000e+00  0.0000000000000000e+00 1.4189933352125206e-01 0.0000000000000000e+00  -1.4190049266898530e-01 0.0000000000000000e+00 0.0000000000000000e+00  -4.3179355885680954e-06 -1.4190230293865169e-01 0.0000000000000000e+00  1.1829697173767346e-01 -1.0023657031532028e-06 0.0000000000000000e+00  -1.4129725414867158e-06 1.1829556144533337e-01 0.0000000000000000e+00  -1.1829777834548795e-01 -3.2173267740185755e-06 0.0000000000000000e+00  -7.5029510076805679e-08 -1.1829956328000148e-01 0.0000000000000000e+00  1.4121690338934162e-01 1.3912136084217080e-02 0.0000000000000000e+00  1.3917316329863577e-01 2.7680727017968483e-02 0.0000000000000000e+00  1.3579008506025755e-01 4.1190007267716190e-02 0.0000000000000000e+00  1.3109956774376683e-01 5.4301539065368720e-02 0.0000000000000000e+00  1.2514528880144807e-01 6.6890559091866933e-02 0.0000000000000000e+00  1.1798387409214274e-01 7.8836315219828604e-02 0.0000000000000000e+00  1.0969249564173991e-01 9.0016028048918784e-02 0.0000000000000000e+00  1.0033967411964680e-01 1.0033835263967479e-01 0.0000000000000000e+00  9.0021398767502744e-02 1.0968922829986469e-01 0.0000000000000000e+00  7.8835446948620505e-02 1.1798536039519433e-01 0.0000000000000000e+00  6.6888659844047405e-02 1.2514321711524692e-01 0.0000000000000000e+00  5.4306713132904277e-02 1.3109576550889826e-01 0.0000000000000000e+00  4.1192114511548715e-02 1.3578926467133839e-01 0.0000000000000000e+00  2.7682898609253017e-02 1.3917302368942464e-01 0.0000000000000000e+00  1.3908971818219259e-02 1.4121636685572919e-01 0.0000000000000000e+00  -1.3913145790892091e-02 1.4121495449412286e-01 0.0000000000000000e+00  -2.7682184563463122e-02 1.3917107805869816e-01 0.0000000000000000e+00  -4.1191557177539175e-02 1.3578787064661985e-01 0.0000000000000000e+00  -5.4303144330393245e-02 1.3109726121396381e-01 0.0000000000000000e+00  -6.6892215011090272e-02 1.2514290004133488e-01 0.0000000000000000e+00  -7.8838007435431637e-02 1.1798140405753432e-01 0.0000000000000000e+00  -9.0017676114838602e-02 1.0968997867164001e-01 0.0000000000000000e+00  -1.0033971883990508e-01 1.0033710351656563e-01 0.0000000000000000e+00  -1.0969083947959968e-01 9.0019177005465120e-02 0.0000000000000000e+00  -1.1798619474806207e-01 7.8833818570424319e-02 0.0000000000000000e+00  -1.2514642086775057e-01 6.6885870156055599e-02 0.0000000000000000e+00  -1.3109803755957652e-01 5.4304183874128019e-02 0.0000000000000000e+00  -1.3579197569824741e-01 4.1190449956862642e-02 0.0000000000000000e+00  -1.3917512763788148e-01 2.7679879331051416e-02 0.0000000000000000e+00  -1.4121711835981959e-01 1.3902165778962567e-02 0.0000000000000000e+00  -1.4121945635928138e-01 -1.3912080177167543e-02 0.0000000000000000e+00  -1.3917273073944816e-01 -2.7688632950823442e-02 0.0000000000000000e+00  -1.3579230807813272e-01 -4.1190790348433814e-02 0.0000000000000000e+00  -1.3110074164787724e-01 -5.4306018174352433e-02 0.0000000000000000e+00  -1.2514644913297091e-01 -6.6895472528552657e-02 0.0000000000000000e+00  -1.1798694749165803e-01 -7.8839048026248484e-02 0.0000000000000000e+00  -1.0968901851757541e-01 -9.0025435124805903e-02 0.0000000000000000e+00  -1.0034215587270699e-01 -1.0033878579979205e-01 0.0000000000000000e+00  -9.0021409132004016e-02 -1.0969427063921258e-01 0.0000000000000000e+00  -7.8832773313362525e-02 -1.1799094087937603e-01 0.0000000000000000e+00  -6.6895175323628348e-02 -1.2514545235841062e-01 0.0000000000000000e+00  -5.4305042111356186e-02 -1.3110197758225300e-01 0.0000000000000000e+00  -4.1192670487770387e-02 -1.3579362206161874e-01 0.0000000000000000e+00  -2.7683663236669192e-02 -1.3917727459584492e-01 0.0000000000000000e+00  -1.3906045496374043e-02 -1.4121908650652801e-01 0.0000000000000000e+00  1.3908175114136223e-02 -1.4122096403599721e-01 0.0000000000000000e+00  2.7686383660367339e-02 -1.3917837267073235e-01 0.0000000000000000e+00  4.1193984059831650e-02 -1.3579609823159400e-01 0.0000000000000000e+00  5.4301994021626526e-02 -1.3110765930788981e-01 0.0000000000000000e+00  6.6894657658995466e-02 -1.2514595741227924e-01 0.0000000000000000e+00  7.8833629106631276e-02 -1.1798795485751848e-01 0.0000000000000000e+00  9.0019993129784787e-02 -1.0969242532694923e-01 0.0000000000000000e+00  1.0033853707581220e-01 -1.0034125659077223e-01 0.0000000000000000e+00  1.0969071545539183e-01 -9.0022503860216721e-02 0.0000000000000000e+00  1.1798691907986698e-01 -7.8834794836162264e-02 0.0000000000000000e+00  1.2514271270829119e-01 -6.6896269396598942e-02 0.0000000000000000e+00  1.3110021845007935e-01 -5.4304601979566332e-02 0.0000000000000000e+00  1.3579158426517043e-01 -4.1188643391150186e-02 0.0000000000000000e+00  1.3917200369686306e-01 -2.7686301520879742e-02 0.0000000000000000e+00  1.4121786850971244e-01 -1.3910464108053215e-02 0.0000000000000000e+00  1.1804454723415352e-01 7.7354316479346964e-03 0.0000000000000000e+00  1.1728482772702575e-01 1.5441041300509510e-02 0.0000000000000000e+00  1.1602458523383069e-01 2.3077239791298967e-02 0.0000000000000000e+00  1.1426601514271872e-01 3.0617394365276676e-02 0.0000000000000000e+00  1.1201857823039586e-01 3.8025045245152080e-02 0.0000000000000000e+00  1.0929238133747622e-01 4.5269748301122278e-02 0.0000000000000000e+00  1.0609778848958598e-01 5.2320175739490028e-02 0.0000000000000000e+00  1.0244840523937467e-01 5.9146350848810474e-02 0.0000000000000000e+00  9.8360440873540664e-02 6.5720299411564723e-02 0.0000000000000000e+00  9.3851267424920157e-02 7.2012922314113256e-02 0.0000000000000000e+00  8.8939783787209500e-02 7.7998803649365442e-02 0.0000000000000000e+00  8.3648523293719940e-02 8.3647418002949253e-02 0.0000000000000000e+00  7.7998087271454811e-02 8.8939568117273840e-02 0.0000000000000000e+00  7.2013966709080557e-02 9.3850532757644767e-02 0.0000000000000000e+00  6.5722096256658813e-02 9.8359142046661144e-02 0.0000000000000000e+00  5.9148218109351329e-02 1.0244701497290157e-01 0.0000000000000000e+00  5.2320865753086851e-02 1.0609612743071437e-01 0.0000000000000000e+00  4.5269888839157606e-02 1.0929076580200948e-01 0.0000000000000000e+00  3.8024296911312663e-02 1.1201772279278133e-01 0.0000000000000000e+00  3.0617031363832984e-02 1.1426461415508513e-01 0.0000000000000000e+00  2.3078261278776473e-02 1.1602247279323506e-01 0.0000000000000000e+00  1.5440393149902441e-02 1.1728345907936390e-01 0.0000000000000000e+00  7.7368571464165089e-03 1.1804133347654361e-01 0.0000000000000000e+00  -7.7373235977026009e-03 1.1804239571924069e-01 0.0000000000000000e+00  -1.5442890877797004e-02 1.1728273690730359e-01 0.0000000000000000e+00  -2.3079060607001059e-02 1.1602236181172176e-01 0.0000000000000000e+00  -3.0619193895025706e-02 1.1426370268568138e-01 0.0000000000000000e+00  -3.8026827003501865e-02 1.1201619232143634e-01 0.0000000000000000e+00  -4.5271517350297441e-02 1.0928993349441730e-01 0.0000000000000000e+00  -5.2321936564824027e-02 1.0609528737969372e-01 0.0000000000000000e+00  -5.9148110020991219e-02 1.0244585311528082e-01 0.0000000000000000e+00  -6.5722050179532213e-02 9.8357821229523079e-02 0.0000000000000000e+00  -7.2014702045708270e-02 9.3848554534272308e-02 0.0000000000000000e+00  -7.8000799325370365e-02 8.8937460239098487e-02 0.0000000000000000e+00  -8.3648937714617580e-02 8.3646645622434332e-02 0.0000000000000000e+00  -8.8941402738163880e-02 7.7994811074412987e-02 0.0000000000000000e+00  -9.3852255365503776e-02 7.2011073224152899e-02 0.0000000000000000e+00  -9.8361062382217146e-02 6.5719390648830048e-02 0.0000000000000000e+00  -1.0244914067361258e-01 5.9145522167629423e-02 0.0000000000000000e+00  -1.0609810476449431e-01 5.2318213481595433e-02 0.0000000000000000e+00  -1.0929270939108086e-01 4.5266567568244889e-02 0.0000000000000000e+00  -1.1201953963818012e-01 3.8021561108466724e-02 0.0000000000000000e+00  -1.1426686760934671e-01 3.0613379806899699e-02 0.0000000000000000e+00  -1.1602476610097374e-01 2.3075215433766422e-02 0.0000000000000000e+00  -1.1728571237440322e-01 1.5437776844838843e-02 0.0000000000000000e+00  -1.1804488370415976e-01 7.7341614493727706e-03 0.0000000000000000e+00  -1.1804382326495150e-01 -7.7395109562836441e-03 0.0000000000000000e+00  -1.1728581498075932e-01 -1.5443499524870603e-02 0.0000000000000000e+00  -1.1602517736861978e-01 -2.3082577571727506e-02 0.0000000000000000e+00  -1.1426729139998149e-01 -3.0619788224175413e-02 0.0000000000000000e+00  -1.1201996966015969e-01 -3.8029667186246272e-02 0.0000000000000000e+00  -1.0929371047973820e-01 -4.5273221839557204e-02 0.0000000000000000e+00  -1.0609707827293545e-01 -5.2325349788031612e-02 0.0000000000000000e+00  -1.0244840863426138e-01 -5.9152434322421996e-02 0.0000000000000000e+00  -9.8360813190586496e-02 -6.5726205857616044e-02 0.0000000000000000e+00  -9.3852059400856405e-02 -7.2017892765449940e-02 0.0000000000000000e+00  -8.8941436774699054e-02 -7.8002356467089043e-02 0.0000000000000000e+00  -8.3648810475850793e-02 -8.3652058986919145e-02 0.0000000000000000e+00  -7.7998800826778361e-02 -8.8943933906189307e-02 0.0000000000000000e+00  -7.2015294030303170e-02 -9.3854494721941767e-02 0.0000000000000000e+00  -6.5721937208516393e-02 -9.8364256494358107e-02 0.0000000000000000e+00  -5.9150009708880499e-02 -1.0245140143049990e-01 0.0000000000000000e+00  -5.2321828687200034e-02 -1.0609985917392822e-01 0.0000000000000000e+00  -4.5269022346386696e-02 -1.0929572481470363e-01 0.0000000000000000e+00  -3.8024841872034990e-02 -1.1202178047428100e-01 0.0000000000000000e+00  -3.0616748514713330e-02 -1.1426901376917104e-01 0.0000000000000000e+00  -2.3078345802847362e-02 -1.1602686568275472e-01 0.0000000000000000e+00  -1.5441128402161983e-02 -1.1728785787685481e-01 0.0000000000000000e+00  -7.7374646107514818e-03 -1.1804690160845510e-01 0.0000000000000000e+00  7.7358341785058928e-03 -1.1804565124818224e-01 0.0000000000000000e+00  1.5441897843118410e-02 -1.1728737907312195e-01 0.0000000000000000e+00  2.3077521291390662e-02 -1.1602708049823696e-01 0.0000000000000000e+00  3.0617957917222671e-02 -1.1426781103043789e-01 0.0000000000000000e+00  3.8026128420778751e-02 -1.1202045742482789e-01 0.0000000000000000e+00  4.5270870823593448e-02 -1.0929449693742703e-01 0.0000000000000000e+00  5.2323061797971145e-02 -1.0609893334342550e-01 0.0000000000000000e+00  5.9147016734467553e-02 -1.0245137087120425e-01 0.0000000000000000e+00  6.5721483854089269e-02 -9.8362077712604329e-02 0.0000000000000000e+00  7.2015450639440454e-02 -9.3852486419729778e-02 0.0000000000000000e+00  7.7999124877160819e-02 -8.8941330938876559e-02 0.0000000000000000e+00  8.3649058606499307e-02 -8.3650193520236213e-02 0.0000000000000000e+00  8.8940270849822020e-02 -7.8000669752837051e-02 0.0000000000000000e+00  9.3850269435450037e-02 -7.2016804726980729e-02 0.0000000000000000e+00  9.8359449864037135e-02 -6.5724259556856429e-02 0.0000000000000000e+00  1.0244776975358331e-01 -5.9150144433290287e-02 0.0000000000000000e+00  1.0609836955409130e-01 -5.2321395625624031e-02 0.0000000000000000e+00  1.0929213021732641e-01 -4.5272844041824370e-02 0.0000000000000000e+00  1.1201801752777676e-01 -3.8027433694893330e-02 0.0000000000000000e+00  1.1426662347473548e-01 -3.0617668349537740e-02 0.0000000000000000e+00  1.1602412861751606e-01 -2.3080411441213419e-02 0.0000000000000000e+00  1.1728512071388464e-01 -1.5441035051927916e-02 0.0000000000000000e+00  1.1804325966180897e-01 -7.7374777088089078e-03 0.0000000000000000e+00  1.1657702352449321e-01 -6.9851922559006088e-02 0.0000000000000000e+00  -1.1741416881163937e-01 6.9771296125668958e-02 0.0000000000000000e+00  9.1552525332034521e-02 1.0141326523279835e-01 0.0000000000000000e+00  -8.1297278252368252e-02 -1.0988562061856648e-01 0.0000000000000000e+00  7.0564872417115246e-02 1.1706823804061835e-01 0.0000000000000000e+00  -1.0171606887115821e-01 9.1146633935514115e-02 0.0000000000000000e+00  -1.3260634080755540e-01 3.3036899919352013e-02 0.0000000000000000e+00  1.2894051216171884e-01 -4.6675013646507030e-02 0.0000000000000000e+00  1.9690535612228156e-02 1.3519376943706612e-01 0.0000000000000000e+00  -5.7666489620478927e-02 -1.2368787499539002e-01 0.0000000000000000e+00  1.0137263524882704e-01 -9.1649533191867069e-02 0.0000000000000000e+00  -3.3040163219796789e-02 -1.3260838684567200e-01 0.0000000000000000e+00  4.5285443844518283e-02 1.2931262276311889e-01 0.0000000000000000e+00  -1.3564481244384849e-01 6.3533359154979924e-03 0.0000000000000000e+00  1.3526167289939475e-01 -1.9721928988647663e-02 0.0000000000000000e+00  -6.3570700709317026e-03 -1.3564676850729890e-01 0.0000000000000000e+00  1.9914129661489220e-02 -1.3516047541064899e-01 0.0000000000000000e+00  1.3691725965225990e-01 6.0369056698368773e-03 0.0000000000000000e+00  -5.8584691409896590e-02 1.2346289118854931e-01 0.0000000000000000e+00  1.2346527050526925e-01 5.8583034134119381e-02 0.0000000000000000e+00  -1.1712917118675731e-01 -7.0406046172018247e-02 0.0000000000000000e+00  5.8911075873658868e-02 -1.2378179528472381e-01 0.0000000000000000e+00  -1.0055843572859977e-01 -9.1388723776475639e-02 0.0000000000000000e+00  -6.2321593542604406e-03 1.3681076047288035e-01 0.0000000000000000e+00  -8.1089707767802069e-02 1.0902844536113405e-01 0.0000000000000000e+00  -1.2869097020723605e-01 -4.7033040143166227e-02 0.0000000000000000e+00  1.3251499557469709e-01 3.3191192999254306e-02 0.0000000000000000e+00  1.0903105562515697e-01 8.1088042142352088e-02 0.0000000000000000e+00  -3.3192761670207752e-02 1.3251281012811858e-01 0.0000000000000000e+00  -1.3526319814406193e-01 -1.9724007378353940e-02 0.0000000000000000e+00  8.1376754549683752e-02 -1.0972768868527374e-01 0.0000000000000000e+00  3.4452476224910086e-02 -1.1579555105759134e-01 0.0000000000000000e+00  -1.1018447244648538e-01 5.0060228815995485e-02 0.0000000000000000e+00  9.8907683350728512e-02 -6.9369476156827162e-02 0.0000000000000000e+00  -9.8088831981461747e-02 7.0906885205904616e-02 0.0000000000000000e+00  -1.1942715077002858e-01 1.9942247932467717e-02 0.0000000000000000e+00  2.7446439679171486e-02 1.1797840894950022e-01 0.0000000000000000e+00  -4.3735173867636500e-02 -1.1274381920749008e-01 0.0000000000000000e+00  -6.4174724378418854e-02 -1.0307203954739524e-01 0.0000000000000000e+00  1.1042741358999421e-01 -5.0255158384696227e-02 0.0000000000000000e+00  -8.2753833644573296e-02 -8.8264924823212840e-02 0.0000000000000000e+00  7.0692517455168288e-02 9.8286148048389893e-02 0.0000000000000000e+00  4.9938039145501302e-02 1.1027375464277790e-01 0.0000000000000000e+00  -2.0116373322565249e-02 -1.1943697776798523e-01 0.0000000000000000e+00  -8.2864847669564382e-02 8.8278337226904494e-02 0.0000000000000000e+00  1.1780271320531380e-01 -2.7731743566342316e-02 0.0000000000000000e+00  8.8678409292693008e-02 8.2434365722040978e-02 0.0000000000000000e+00  1.2097812298816076e-01 -4.6155106336221779e-03 0.0000000000000000e+00  4.0227621929666592e-03 1.2059676492996717e-01 0.0000000000000000e+00  5.3328299663146688e-03 -1.2088469432149558e-01 0.0000000000000000e+00  8.2371286753938566e-02 -8.8868932878133133e-02 0.0000000000000000e+00  -1.2088302203104942e-01 -5.3368039845835017e-03 0.0000000000000000e+00  -4.2093880110269676e-02 1.1362245642527841e-01 0.0000000000000000e+00  1.1955654630000934e-01 1.9127007488379984e-02 0.0000000000000000e+00  1.1362485363985428e-01 4.2092136610286539e-02 0.0000000000000000e+00  -1.9128760787068235e-02 1.1955439789960168e-01 0.0000000000000000e+00  -1.0976488767970817e-01 -4.9639392728914426e-02 0.0000000000000000e+00  -6.4833655875612808e-02 1.0193541243173838e-01 0.0000000000000000e+00  -9.8673881317968101e-02 -7.0239171709492398e-02 0.0000000000000000e+00  6.4649292122440943e-02 -1.0224009397945802e-01 0.0000000000000000e+00  -1.1778617849227994e-01 -2.8085317817644905e-02 0.0000000000000000e+00  1.0193797407595387e-01 6.4831913732597071e-02 0.0000000000000000e+00  -1.1548875997875913e-01 3.6005001559935274e-02 0.0000000000000000e+00  1.9876365954038803e-02 -1.1961694685721373e-01 0.0000000000000000e+00  4.9713960416914942e-02 -1.1054861726070384e-01 0.0000000000000000e+00  -4.6474527542007447e-02 1.2847424899812929e-01 0.0000000000000000e+00  -3.8897729320616227e-02 1.2603757759099637e-01 0.0000000000000000e+00  -2.7447075284306857e-02 1.2878747238563998e-01 0.0000000000000000e+00  -3.2528525759843892e-02 1.2340214135868717e-01 0.0000000000000000e+00  -4.2798001245919669e-02 1.2039795979916507e-01 0.0000000000000000e+00  -2.2707234223941445e-02 1.2530091938722937e-01 0.0000000000000000e+00  -1.6834902129613090e-02 1.2969248287240365e-01 0.0000000000000000e+00  -1.3045259915669231e-02 1.2589482643214009e-01 0.0000000000000000e+00  -6.5101926567258826e-03 1.2932676196709245e-01 0.0000000000000000e+00  -4.3043787451544219e-03 1.2519008656047881e-01 0.0000000000000000e+00  3.4372082142970451e-03 1.2820340663715837e-01 0.0000000000000000e+00  -1.1263350096651517e-02 1.2231270533440647e-01 0.0000000000000000e+00  -5.0525256540906657e-02 1.2197227205180362e-01 0.0000000000000000e+00  -6.1325568518155293e-02 1.1670272759319104e-01 0.0000000000000000e+00  -5.4208599300396149e-02 1.1574276403852003e-01 0.0000000000000000e+00  -6.3382974127744282e-02 1.1082740591282565e-01 0.0000000000000000e+00  -5.6268764758881602e-02 1.1094698250881835e-01 0.0000000000000000e+00  -7.0943480060842834e-02 1.1068952548075112e-01 0.0000000000000000e+00  -7.1576798637573241e-02 1.0510604181236251e-01 0.0000000000000000e+00  -7.8878620642061012e-02 1.0403460754527021e-01 0.0000000000000000e+00  -7.8593418741896043e-02 9.8764085667397430e-02 0.0000000000000000e+00  -8.5694238129887565e-02 9.6355443012395070e-02 0.0000000000000000e+00  -3.7974089100793036e-02 1.1828138733225461e-01 0.0000000000000000e+00  7.3676814851512725e-03 -1.3646371518640835e-01 0.0000000000000000e+00  1.3238380255135372e-02 -1.3131734229221192e-01 0.0000000000000000e+00  2.3940897962673909e-02 -1.2948093631200211e-01 0.0000000000000000e+00  1.7359234040512046e-02 -1.2660312432649917e-01 0.0000000000000000e+00  2.7020146825500264e-02 -1.2445548307465648e-01 0.0000000000000000e+00  3.4280878702473976e-02 -1.2636093268374846e-01 0.0000000000000000e+00  6.2770463309643337e-03 -1.2791595432840172e-01 0.0000000000000000e+00  3.6247704416854910e-02 -1.2138507057863322e-01 0.0000000000000000e+00  4.3691874865592562e-02 -1.2205275539912762e-01 0.0000000000000000e+00  4.5007566901512107e-02 -1.1662824303146654e-01 0.0000000000000000e+00  5.4043074428909897e-02 -1.1682074062069997e-01 0.0000000000000000e+00  4.2371744445625685e-02 -1.2780741529604983e-01 0.0000000000000000e+00  1.2320504813404132e-02 -1.2324320883444621e-01 0.0000000000000000e+00  9.2102034237551589e-02 -1.0091379270123448e-01 0.0000000000000000e+00  8.4169497093674467e-02 -1.0156210598625157e-01 0.0000000000000000e+00  7.4642827708286674e-02 -1.0848465263295241e-01 0.0000000000000000e+00  7.7276601894822633e-02 -1.0156461398163361e-01 0.0000000000000000e+00  8.5614700724809034e-02 -9.4859209204146783e-02 0.0000000000000000e+00  6.8929664756935669e-02 -1.0707797367911853e-01 0.0000000000000000e+00  6.5185406967392681e-02 -1.1338221346858623e-01 0.0000000000000000e+00  9.3356232619390411e-02 -9.3356593851368685e-02 0.0000000000000000e+00  1.0131787198054593e-01 -8.4355076086566824e-02 0.0000000000000000e+00  9.4375271706647682e-02 -8.6191739260550501e-02 0.0000000000000000e+00  1.0097030310637739e-01 -7.8139668411776234e-02 0.0000000000000000e+00  9.4443353038386607e-02 -8.0972641306003582e-02 0.0000000000000000e+00  1.0789400003141673e-01 -7.5134506351412944e-02 0.0000000000000000e+00  1.0634974404020386e-01 -6.9720604943253231e-02 0.0000000000000000e+00  1.1268699518142512e-01 -6.5933759739418452e-02 0.0000000000000000e+00  1.1038865639291044e-01 -6.1154409898553225e-02 0.0000000000000000e+00  1.1614035536665421e-01 -5.6747616998405782e-02 0.0000000000000000e+00  8.0347971874282248e-02 -9.4749800487020974e-02 0.0000000000000000e+00  1.2847654165489575e-01 4.6472918758321831e-02 0.0000000000000000e+00  1.2603985188505398e